# vtk DataFile Version 3.0
vtk output
ASCII
DATASET POLYDATA
POINTS 16 float
0 0 0 0 1 0 1 1 0 
1 0 0 2 0 0 3 0 0 
3 1 0 2 1 0 2 2 0 
3 2 0 3 3 0 2 3 0 
1 3 0 1 2 0 0 2 0 
0 3 0 
LINES 1 17
16 0 1 2 3 4 5 6 7 8 9 10 11 12 13 14 15 

POINT_DATA 16
SCALARS scalars unsigned_int
LOOKUP_TABLE default
1 1 1 1 1 1 1 1 1 
1 1 1 1 1 1 1 
