# vtk DataFile Version 3.0
vtk output
ASCII
DATASET POLYDATA
POINTS 4 float
0 0 0 1 0 0 1 1 0 
0 1 0 
LINES 1 5
4 0 1 2 3 

POINT_DATA 4
SCALARS scalars unsigned_int
LOOKUP_TABLE default
1 1 1 1 
